[Molden Format]

[FREQ]
        1209.2091522306
        1849.6261527654
        1849.6261532354
        3689.4237018006
        3822.4696523227
        3822.4696530703

[FR-COORD]
N          0.0000000002        0.1242678246        0.0000000000
H          0.8802461297       -0.5755402275       -1.5246310223
H          0.8802461297       -0.5755402275        1.5246310223
H         -1.7604922616       -0.5755402268        0.0000000000

[FR-NORM-COORD]
vibration 1
          -0.0000000001       -0.1152600240        0.0000000000
           0.1048095068        0.5338210485       -0.1815353900
           0.1048095070        0.5338210486        0.1815353899
          -0.2096190126        0.5338210483       -0.0000000003
vibration 2
          -0.0657162377        0.0000000001        0.0129700461
           0.4506012391       -0.1623442478        0.3686393796
           0.6025149114       -0.0796274057       -0.4010722225
          -0.1400317260        0.2419716522       -0.1477775209
vibration 3
          -0.0129700461       -0.0000000000       -0.0657162377
           0.4887796225        0.1856753022        0.1581217102
          -0.2809319802       -0.2334318932        0.0062080383
          -0.0276372783        0.0477565913        0.7487546757
vibration 4
          -0.0000000001       -0.0382818658        0.0000000001
          -0.2745038003        0.1773005503        0.4754545297
          -0.2745038012        0.1773005509       -0.4754545311
           0.5490076035        0.1773005509        0.0000000001
vibration 5
          -0.0798989634        0.0000000001        0.0021875727
           0.1851244936       -0.1540723602       -0.3516891333
           0.1667123740       -0.1401210525        0.3207956238
           0.7583073150        0.2941934117        0.0004986086
vibration 6
          -0.0021875727       -0.0000000001       -0.0798989634
          -0.3314258652        0.2507515732        0.5549716293
           0.3410588895       -0.2588063639        0.5733837478
           0.0207618766        0.0080547914       -0.0182111937
