[Molden Format]

[FREQ]
        1826.6104739409
        4070.6545394873
        4188.9434164095

[FR-COORD]
O          0.0000000000       -0.0000000000        0.1212603292
H          1.4249768398       -0.0000000000       -0.9622447103
H         -1.4249768399        0.0000000000       -0.9622447102

[FR-NORM-COORD]
vibration 1
          -0.0000000000       -0.0000000000       -0.0704917601
           0.4296650456        0.0000000000        0.5593776939
          -0.4296650456       -0.0000000000        0.5593776940
vibration 2
           0.0000000000        0.0000000000        0.0501514452
           0.5834058304       -0.0000000000       -0.3979699144
          -0.5834058311        0.0000000000       -0.3979699149
vibration 3
          -0.0707543613       -0.0000000000        0.0000000000
           0.5614615301        0.0000000000       -0.4269166910
           0.5614615293       -0.0000000000        0.4269166905
